; KCNQ2 8J01 pore-only G215-K319 (ACE/NME) | Amber14sb + Lipid21 + ECC YO.Q (stok Amber14sb zaryadlari, to.liq zaryadli JC ionlari) | TIP3P | 0.5 M KCl | filter -KKK- (last 3 K)
#include "amber14sb_noecc.ff/forcefield.itp"
#include "A_prot_Protein_chain_A.itp"
#include "A_prot_Protein_chain_B.itp"
#include "A_prot_Protein_chain_C.itp"
#include "A_prot_Protein_chain_D.itp"
#include "POPC.itp"
#include "amber14sb_noecc.ff/tip3p.itp"
#include "amber14sb_noecc.ff/ions.itp"

[ system ]
KCNQ2 8J01 hybrid G310S pore (H2), ECC-free

[ molecules ]
Protein_chain_A  1
Protein_chain_B  1
Protein_chain_C  1
Protein_chain_D  1
POPC  234
SOL  14952
K  138
CL  137
K  3
